 &FCI NORB=  10,NELEC=14,MS2=0,
  ORBSYM=1,1,1,1,1,1,1,1,1,1,
  ISYM=1,
 &END
  2.2777432945656955   1   1   1   1
  1.8387680117748311   2   1   2   1
  2.2800605438096504   2   2   1   1
  2.2823875470535127   2   2   2   2
 -0.1956491686864515   3   1   2   1
  0.0299060131264942   3   1   3   1
 -0.1907792411424441   3   2   1   1
 -0.1912473094497426   3   2   2   2
  0.0301850441823660   3   2   3   2
  0.7576116023464368   3   3   1   1
  0.7573718695729661   3   3   2   2
  0.0014604614044846   3   3   3   2
  0.7302634189255751   3   3   3   3
 -0.2096829640335616   4   1   1   1
 -0.2100094336795892   4   1   2   2
  0.0285496829821936   4   1   3   2
 -0.0172422390271479   4   1   3   3
  0.0334978373138531   4   1   4   1
 -0.2052814847765500   4   2   2   1
  0.0286341152987966   4   2   3   1
  0.0334704971223479   4   2   4   2
  0.1910337618409995   4   3   2   1
 -0.0081461745922917   4   3   3   1
 -0.0070817898577947   4   3   4   2
  0.0651142475778889   4   3   4   3
  0.6662704863181453   4   4   1   1
  0.6664800261179635   4   4   2   2
 -0.0129653065450350   4   4   3   2
  0.5092453578302836   4   4   3   3
 -0.0082285186927002   4   4   4   1
  0.5327778740956949   4   4   4   4
  0.0097106488676998   5   1   5   1
  0.0100298008287326   5   2   5   2
  0.0160879165660383   5   3   5   2
  0.0969090613299738   5   3   5   3
  0.0125810532999483   5   4   5   1
  0.0554248989164762   5   4   5   4
  0.6727187555504167   5   5   1   1
  0.6726471543751882   5   5   2   2
 -0.0024127859426991   5   5   3   2
  0.5984687682871128   5   5   3   3
 -0.0079853159918602   5   5   4   1
  0.5070990291806493   5   5   4   4
  0.5726096861254824   5   5   5   5
  0.0097106488676998   6   1   6   1
  0.0100298008287326   6   2   6   2
  0.0160879165660383   6   3   6   2
  0.0969090613299738   6   3   6   3
  0.0125810532999483   6   4   6   1
  0.0554248989164762   6   4   6   4
  0.0228649838796350   6   5   6   5
  0.6727187555504167   6   6   1   1
  0.6726471543751882   6   6   2   2
 -0.0024127859426991   6   6   3   2
  0.5984687682871128   6   6   3   3
 -0.0079853159918602   6   6   4   1
  0.5070990291806493   6   6   4   4
  0.5268797183662123   6   6   5   5
  0.5726096861254824   6   6   6   6
  0.0853545724708639   7   1   2   1
 -0.0091091626478014   7   1   3   1
 -0.0172336190313904   7   1   4   2
  0.0014251295768866   7   1   4   3
  0.0147510696437802   7   1   7   1
  0.0978300371882333   7   2   1   1
  0.0977997200107201   7   2   2   2
 -0.0087948645485890   7   2   3   2
  0.0252614025195919   7   2   3   3
 -0.0174851719307616   7   2   4   1
 -0.0014149430521785   7   2   4   4
  0.0089472258690077   7   2   5   5
  0.0089472258690077   7   2   6   6
  0.0155188091381616   7   2   7   2
  0.0506659115486533   7   3   1   1
  0.0504691950835222   7   3   2   2
  0.0070769476137762   7   3   3   2
  0.1025182780345978   7   3   3   3
 -0.0028853307053133   7   3   4   1
  0.0004095731324583   7   3   4   4
  0.0405384346481046   7   3   5   5
  0.0405384346481046   7   3   6   6
  0.0109230532716804   7   3   7   2
  0.0478658752252559   7   3   7   3
 -0.2517581697798311   7   4   2   1
  0.0136720558292859   7   4   3   1
  0.0004630513109780   7   4   4   2
 -0.0933745061489474   7   4   4   3
  0.0131507670516008   7   4   7   1
  0.2114199605504954   7   4   7   4
 -0.0057308993766438   7   5   5   2
 -0.0159289176369487   7   5   5   3
  0.0291055604039847   7   5   7   5
 -0.0057308993766438   7   6   6   2
 -0.0159289176369487   7   6   6   3
  0.0291055604039847   7   6   7   6
  0.6681642937259428   7   7   1   1
  0.6683610614307417   7   7   2   2
 -0.0100582533117186   7   7   3   2
  0.5235077352956238   7   7   3   3
 -0.0051796260240797   7   7   4   1
  0.5441476061481373   7   7   4   4
  0.5059681769804780   7   7   5   5
  0.5059681769804781   7   7   6   6
 -0.0029251919282860   7   7   7   2
  0.0107048972488268   7   7   7   3
  0.5728595225177924   7   7   7   7
  0.0119378833533029   8   1   6   2
  0.0182583346097473   8   1   6   3
 -0.0070248227115824   8   1   7   6
  0.0142256393880879   8   1   8   1
  0.0114422841748644   8   2   6   1
  0.0144103655555347   8   2   6   4
  0.0134994612549445   8   2   8   2
  0.0118575774862715   8   3   6   1
  0.0454390783983574   8   3   6   4
  0.0133916865830923   8   3   8   2
  0.0445005232467540   8   3   8   3
  0.0164125562233821   8   4   6   2
  0.0742009678968432   8   4   6   3
 -0.0387477249491157   8   4   7   6
  0.0192257330584041   8   4   8   1
  0.0843048058267264   8   4   8   4
  0.0192311871207038   8   5   8   5
  0.2871254960940315   8   6   2   1
 -0.0083500676257743   8   6   3   1
 -0.0046247093204471   8   6   4   2
  0.1062839186349108   8   6   4   3
 -0.0021830436621464   8   6   7   1
 -0.1571812152712989   8   6   7   4
  0.1967497242602954   8   6   8   6
 -0.0075687368039506   8   7   6   1
 -0.0400193393374245   8   7   6   4
 -0.0088894167054853   8   7   8   2
 -0.0247298775741231   8   7   8   3
  0.0379433760819427   8   7   8   7
  0.7098689853363040   8   8   1   1
  0.7098614598658406   8   8   2   2
 -0.0062159774271468   8   8   3   2
  0.5807987835725245   8   8   3   3
 -0.0086439359977621   8   8   4   1
  0.5289059156682924   8   8   4   4
  0.5298580800723407   8   8   5   5
  0.5747122764624827   8   8   6   6
  0.0062697111666143   8   8   7   2
  0.0253000958850084   8   8   7   3
  0.5268770485728259   8   8   7   7
  0.5910687158835173   8   8   8   8
  0.0119378833533029   9   1   5   2
  0.0182583346097473   9   1   5   3
 -0.0070248227115824   9   1   7   5
  0.0142256393880879   9   1   9   1
  0.0114422841748644   9   2   5   1
  0.0144103655555347   9   2   5   4
  0.0134994612549445   9   2   9   2
  0.0118575774862715   9   3   5   1
  0.0454390783983574   9   3   5   4
  0.0133916865830923   9   3   9   2
  0.0445005232467540   9   3   9   3
  0.0164125562233821   9   4   5   2
  0.0742009678968432   9   4   5   3
 -0.0387477249491157   9   4   7   5
  0.0192257330584041   9   4   9   1
  0.0843048058267264   9   4   9   4
  0.2871254960940315   9   5   2   1
 -0.0083500676257743   9   5   3   1
 -0.0046247093204471   9   5   4   2
  0.1062839186349108   9   5   4   3
 -0.0021830436621464   9   5   7   1
 -0.1571812152712989   9   5   7   4
  0.1582873500188876   9   5   8   6
  0.1967497242602954   9   5   9   5
  0.0192311871207038   9   6   8   5
  0.0192311871207038   9   6   9   6
 -0.0075687368039506   9   7   5   1
 -0.0400193393374245   9   7   5   4
 -0.0088894167054853   9   7   9   2
 -0.0247298775741231   9   7   9   3
  0.0379433760819427   9   7   9   7
  0.0224270981950710   9   8   6   5
  0.0244534918864434   9   8   9   8
  0.7098689853363040   9   9   1   1
  0.7098614598658406   9   9   2   2
 -0.0062159774271468   9   9   3   2
  0.5807987835725245   9   9   3   3
 -0.0086439359977621   9   9   4   1
  0.5289059156682924   9   9   4   4
  0.5747122764624827   9   9   5   5
  0.5298580800723407   9   9   6   6
  0.0062697111666143   9   9   7   2
  0.0253000958850084   9   9   7   3
  0.5268770485728259   9   9   7   7
  0.5421617321106303   9   9   8   8
  0.5910687158835173   9   9   9   9
 -0.1224168158282777  10   1   1   1
 -0.1229834629627489  10   1   2   2
  0.0259352162546773  10   1   3   2
  0.0219581556747937  10   1   3   3
  0.0160412517772837  10   1   4   1
 -0.0145187524742797  10   1   4   4
  0.0055829638663642  10   1   5   5
  0.0055829638663642  10   1   6   6
  0.0045056195395607  10   1   7   2
  0.0159561612153027  10   1   7   3
 -0.0133525147782396  10   1   7   7
 -0.0000493084313252  10   1   8   8
 -0.0000493084313252  10   1   9   9
  0.0337612552730043  10   1  10   1
 -0.1408895555400594  10   2   2   1
  0.0256258427852426  10   2   3   1
  0.0165049360398625  10   2   4   2
 -0.0073582360530684  10   2   4   3
  0.0035214722146332  10   2   7   1
  0.0262913389033107  10   2   7   4
 -0.0101606312312664  10   2   8   6
 -0.0101606312312664  10   2   9   5
  0.0328050923715699  10   2  10   2
  0.2213832862270817  10   3   2   1
 -0.0036962871028871  10   3   3   1
 -0.0118526502814940  10   3   4   2
  0.0656627246596236  10   3   4   3
  0.0124895701109416  10   3   7   1
 -0.0504032179922190  10   3   7   4
  0.1018434077723237  10   3   8   6
  0.1018434077723237  10   3   9   5
  0.0070013313196929  10   3  10   2
  0.1072232630621424  10   3  10   3
  0.0630336462508280  10   4   1   1
  0.0628354693142495  10   4   2   2
  0.0030351657465310  10   4   3   2
  0.0870249408234742  10   4   3   3
 -0.0078557081160175  10   4   4   1
 -0.0119569159634854  10   4   4   4
  0.0460330776230975  10   4   5   5
  0.0460330776230975  10   4   6   6
  0.0141179374281659  10   4   7   2
  0.0342571073424711  10   4   7   3
 -0.0260194932284589  10   4   7   7
  0.0335505702722442  10   4   8   8
  0.0335505702722442  10   4   9   9
  0.0154998670921641  10   4  10   1
  0.0556929953644899  10   4  10   4
  0.0078438462994156  10   5   5   1
  0.0219389230554542  10   5   5   4
  0.0086450819683428  10   5   9   2
  0.0309562630535629  10   5   9   3
 -0.0013638292525241  10   5   9   7
  0.0319889943338246  10   5  10   5
  0.0078438462994156  10   6   6   1
  0.0219389230554542  10   6   6   4
  0.0086450819683428  10   6   8   2
  0.0309562630535629  10   6   8   3
 -0.0013638292525241  10   6   8   7
  0.0319889943338245  10   6  10   6
  0.2050900411127736  10   7   2   1
 -0.0067560282356722  10   7   3   1
 -0.0023610962929243  10   7   4   2
  0.0646449599794751  10   7   4   3
 -0.0034930070248513  10   7   7   1
 -0.1323066031190802  10   7   7   4
  0.1045840279768038  10   7   8   6
  0.1045840279768038  10   7   9   5
 -0.0107625104692026  10   7  10   2
  0.0614466785638929  10   7  10   3
  0.1060325155048058  10   7  10   7
  0.0096765128043002  10   8   6   2
  0.0533391190627347  10   8   6   3
  0.0023130275110338  10   8   7   6
  0.0109718865943876  10   8   8   1
  0.0316282724069934  10   8   8   4
  0.0412130191242267  10   8  10   8
  0.0096765128043003  10   9   5   2
  0.0533391190627347  10   9   5   3
  0.0023130275110338  10   9   7   5
  0.0109718865943876  10   9   9   1
  0.0316282724069934  10   9   9   4
  0.0412130191242267  10   9  10   9
  0.8586637988810151  10  10   1   1
  0.8585196727337346  10  10   2   2
 -0.0057040651924442  10  10   3   2
  0.7002508968280942  10  10   3   3
 -0.0202191031671722  10  10   4   1
  0.5538577597934881  10  10   4   4
  0.5993545876746353  10  10   5   5
  0.5993545876746353  10  10   6   6
  0.0225585640324436  10  10   7   2
  0.0791844512931634  10  10   7   3
  0.5776840163897338  10  10   7   7
  0.6021943877932037  10  10   8   8
  0.6021943877932037  10  10   9   9
  0.0134480780310115  10  10  10   1
  0.0548734950938773  10  10  10   4
  0.7337051370919924  10  10  10  10
-27.2573229164536990   1   1   0   0
-27.2613836127820406   2   2   0   0
  0.5461885133835123   3   2   0   0
 -9.1928435741939740   3   3   0   0
  0.6429628356477501   4   1   0   0
 -7.6166179767365945   4   4   0   0
 -7.8190217895013490   5   5   0   0
 -7.8190217895013490   6   6   0   0
 -0.3422160654524802   7   2   0   0
 -0.5717586874278091   7   3   0   0
 -7.5686915986775638   7   7   0   0
 -7.6706589708157864   8   8   0   0
 -7.6706589708157864   9   9   0   0
  0.2920326263725408  10   1   0   0
 -0.4946523488312136  10   4   0   0
 -8.1860332757344167  10  10   0   0
 21.6080694459000000   0   0   0   0
