 &FCI NORB=   5,NELEC= 8,MS2=0,
  ORBSYM=1,1,1,1,1,
  ISYM=1,
 &END
  4.7402525101232991   1   1   1   1
 -0.4909251511319522   2   1   1   1
  0.0786861855041918   2   1   2   1
  1.1190499515526784   2   2   1   1
 -0.0242202642448913   2   2   2   1
  0.7941173836914762   2   2   2   2
  0.0262219858404956   3   1   3   1
  0.0366483995293423   3   2   3   1
  0.1719799325435492   3   2   3   2
  1.1152340896688089   3   3   1   1
 -0.0154769846325020   3   3   2   1
  0.8035957523870423   3   3   2   2
  0.8801590933750436   3   3   3   3
  0.0262219858404956   4   1   4   1
  0.0366483995293423   4   2   4   1
  0.1719799325435492   4   2   4   2
  0.0474444451183838   4   3   4   3
  1.1152340896688089   4   4   1   1
 -0.0154769846325020   4   4   2   1
  0.8035957523870423   4   4   2   2
  0.7852702031382766   4   4   3   3
  0.8801590933750436   4   4   4   4
  0.0262219858404956   5   1   5   1
  0.0366483995293423   5   2   5   1
  0.1719799325435492   5   2   5   2
  0.0474444451183838   5   3   5   3
  0.0474444451183838   5   4   5   4
  1.1152340896688089   5   5   1   1
 -0.0154769846325020   5   5   2   1
  0.8035957523870423   5   5   2   2
  0.7852702031382766   5   5   3   3
  0.7852702031382766   5   5   4   4
  0.8801590933750436   5   5   5   5
-31.5929250863262183   1   1   0   0
  0.7546106531944109   2   1   0   0
 -6.9453055563184645   2   2   0   0
 -6.4507235284013698   3   3   0   0
 -6.4507235284013698   4   4   0   0
 -6.4507235284013698   5   5   0   0
  0.0000000000000000   0   0   0   0
